 Gaussian 16, Revision A.03,
 Gaussian 16:  EM64L-G16RevA.03 25-Dec-2016

 -----------------------
 #p B3LYP/6-31G(d,p) Opt
 -----------------------

 --------------
 HF Calculation
 --------------
 Symbolic Z-matrix:
 Charge =  0 Multiplicity = 1

 SCF Done:  E(RB3LYP) =  -370.809647234     A.U. after   13 cycles
 SCF Done:  E(RB3LYP) =  -370.810341965     A.U. after   10 cycles
 SCF Done:  E(RB3LYP) =  -370.810380609     A.U. after    8 cycles
 SCF Done:  E(RB3LYP) =  -370.810383226     A.U. after    8 cycles
 Optimization completed.
    -- Stationary point found.

                         Standard orientation:
 ---------------------------------------------------------------------
 Center     Atomic      Atomic             Coordinates (Angstroms)
 Number     Number       Type             X           Y           Z
 ---------------------------------------------------------------------
      1          6           0       -1.362599    0.004547    0.000000
      2          6           0       -0.639875    1.203501    0.000000
      3          6           0        0.756427    1.213744    0.000000
      4          6           0        1.429776    0.000168   -0.000000
      5          6           0        0.750998   -1.213505   -0.000000
      6          6           0       -0.642402   -1.199521   -0.000000
      7          1           0       -1.180002   -2.144460   -0.000000
      8          1           0       -1.174844    2.149488    0.000000
      9          1           0        1.319562    2.140657    0.000000
     10          1           0        1.312214   -2.141644   -0.000000
     11          6           0       -2.873686   -0.001008    0.000000
     12          1           0       -3.275513    1.015755   -0.000001
     13          1           0       -3.272703   -0.516268    0.881222
     14          1           0       -3.272703   -0.516270   -0.881221
     15          9           0        2.781351   -0.003868   -0.000000
 ---------------------------------------------------------------------

 The electronic state is 1-A.
 Alpha  occ. eigenvalues --  -24.69800 -10.26621 -10.19893 -10.19455 -10.19451
 Alpha  occ. eigenvalues --  -10.19346 -10.19281 -10.18676  -1.20907  -0.85987
 Alpha  occ. eigenvalues --   -0.77140  -0.75216  -0.68401  -0.62068  -0.58968
 Alpha  occ. eigenvalues --   -0.53505  -0.48705  -0.47215  -0.45188  -0.43742
 Alpha  occ. eigenvalues --   -0.42750  -0.41943  -0.40751  -0.37170  -0.36130
 Alpha  occ. eigenvalues --   -0.34507  -0.33834  -0.25627  -0.23328
 Alpha virt. eigenvalues --   -0.00776   0.00665   0.08715   0.11903   0.13194
 Alpha virt. eigenvalues --    0.14404   0.15967   0.17673   0.18736   0.19121
 Alpha virt. eigenvalues --    0.19778   0.22641   0.29623   0.32337   0.34462

 Mulliken charges:
               1
     1  C    0.124025
     2  C   -0.124329
     3  C   -0.135196
     4  C    0.345878
     5  C   -0.135278
     6  C   -0.120074
     7  H    0.085210
     8  H    0.085177
     9  H    0.099677
    10  H    0.099939
    11  C   -0.381035
    12  H    0.110871
    13  H    0.122884
    14  H    0.122884
    15  F   -0.300632
 Sum of Mulliken charges =  -0.00000

 Dipole moment (field-independent basis, Debye):
    X=             -1.7085    Y=             -0.0480    Z=              0.0000  Tot=              1.7092
 Quadrupole moment (field-independent basis, Debye-Ang):
   XX=            -46.5636   YY=            -40.9858   ZZ=            -48.1414
   XY=              0.1143   XZ=             -0.0000   YZ=              0.0000

 Normal termination of Gaussian 16 at Tue Oct 25 13:40:16 2022.
